
  ___ ___ ___ _ _ _  
 |   |   |_  | | | | 
 | | | | | . | | | | 
 |__ |  _|___|_____|  22.8.0
 |___|_|             

User:   niklas@DW-PF3E3G40
Date:   Sun Jul 30 22:05:09 2023
Arch:   x86_64
Pid:    16674
CWD:    /mnt/d/qctbx_dev/qctbx/tests
Python: 3.8.17
gpaw:   /home/niklas/anaconda3/envs/cctbx_38/lib/python3.8/site-packages/gpaw
_gpaw:  /home/niklas/anaconda3/envs/cctbx_38/lib/python3.8/site-packages/
        _gpaw.cpython-38-x86_64-linux-gnu.so
ase:    /home/niklas/anaconda3/envs/cctbx_38/lib/python3.8/site-packages/ase (version 3.22.1)
numpy:  /home/niklas/.local/lib/python3.8/site-packages/numpy (version 1.24.4)
scipy:  /home/niklas/.local/lib/python3.8/site-packages/scipy (version 1.10.1)
libxc:  5.2.3
units:  Angstrom and eV
cores: 1
OpenMP: True
OMP_NUM_THREADS: 1

Input parameters:
  gpts: [40 80 56]
  xc: PBE

Initialize ...

species:
  O:
    name: Oxygen
    id: 32ecd46bf208036f09c70b0ec9a88b78
    Z: 8.0
    valence: 6
    core: 2
    charge: 0.0
    file: /home/niklas/anaconda3/envs/cctbx_38/share/gpaw/O.PBE.gz
    compensation charges: {type: gauss,
                           rc: 0.21,
                           lmax: 2}
    cutoffs: {filter: 1.17,
              core: 0.83}
    valence states:
      #              energy  rcut
      - 2s(2.00)   -23.961   0.688
      - 2p(4.00)    -9.029   0.598
      -  s           3.251   0.688
      -  p          18.182   0.598
      -  d           0.000   0.619
  
    # Using partial waves for O as LCAO basis

  C:
    name: Carbon
    id: 4aa54d4b901d75f77cc0ea3eec22967b
    Z: 6.0
    valence: 4
    core: 2
    charge: 0.0
    file: /home/niklas/anaconda3/envs/cctbx_38/share/gpaw/C.PBE.gz
    compensation charges: {type: gauss,
                           rc: 0.20,
                           lmax: 2}
    cutoffs: {filter: 1.14,
              core: 1.14}
    valence states:
      #              energy  rcut
      - 2s(2.00)   -13.751   0.635
      - 2p(2.00)    -5.284   0.635
      -  s          13.461   0.635
      -  p          21.927   0.635
      -  d           0.000   0.635
  
    # Using partial waves for C as LCAO basis

  H:
    name: Hydrogen
    id: d65de229564ff8ea4db303e23b6d1ecf
    Z: 1.0
    valence: 1
    core: 0
    charge: 0.0
    file: /home/niklas/anaconda3/envs/cctbx_38/share/gpaw/H.PBE.gz
    compensation charges: {type: gauss,
                           rc: 0.15,
                           lmax: 2}
    cutoffs: {filter: 0.85,
              core: 0.53}
    valence states:
      #              energy  rcut
      - 1s(1.00)    -6.494   0.476
      -  s          20.717   0.476
      -  p           0.000   0.476
  
    # Using partial waves for H as LCAO basis

Reference energy: -16584.276724  # eV

Spin-paired calculation

Convergence criteria:
 Maximum [total energy] change in last 3 cyles: 0.0005 eV / electron
 Maximum integral of absolute [dens]ity change: 0.0001 electrons / valence electron
 Maximum integral of absolute [eigenst]ate change: 4e-08 eV^2 / valence electron
 Maximum number of scf [iter]ations: 333
 (Square brackets indicate name in SCF output, whereas a 'c' in
 the SCF output indicates the quantity has converged.)

Symmetries present (total): 2

  ( 1  0  0)  (-1  0  0)
  ( 0  1  0)  ( 0 -1  0)
  ( 0  0  1)  ( 0  0 -1)

1 k-point (Gamma)
1 k-point in the irreducible part of the Brillouin zone
       k-points in crystal coordinates                weights
   0:     0.00000000    0.00000000    0.00000000          1/1

Wave functions: Uniform real-space grid
  Kinetic energy operator: 8*3+1=25 point O(h^6) finite-difference Laplacian
  ScaLapack parameters: grid=1x1, blocksize=None
  Wavefunction extrapolation:
    Improved wavefunction reuse through dual PAW basis 

Occupation numbers: Fermi-Dirac:
  width: 0.1000  # eV
 

Eigensolver
   Davidson(niter=2) 

Densities:
  Coarse grid: 40*80*56 grid
  Fine grid: 80*160*112 grid
  Total Charge: 0.000000 

Density mixing:
  Method: separate
  Backend: pulay
  Linear mixing parameter: 0.05
  old densities: 5
  Damping of long wavelength oscillations: 50 

Hamiltonian:
  XC and Coulomb potentials evaluated on a 80*160*112 grid
  Using the PBE Exchange-Correlation functional
  Interpolation: tri-quintic (5. degree polynomial)
  Poisson solver: FastPoissonSolver using
    Stencil: 8*3+1=25 point O(h^6) finite-difference Laplacian
    FFT axes: [0, 1, 2]
    FST axes: []
 

XC parameters: PBE with 2 nearest neighbor stencil

Memory estimate:
  Process memory now: 1225.11 MiB
  Calculator: 289.31 MiB
    Density: 116.14 MiB
      Arrays: 35.55 MiB
      Localized functions: 66.92 MiB
      Mixer: 13.67 MiB
    Hamiltonian: 28.32 MiB
      Arrays: 23.24 MiB
      XC: 0.00 MiB
      Poisson: 0.00 MiB
      vbar: 5.08 MiB
    Wavefunctions: 144.84 MiB
      Arrays psit_nG: 65.62 MiB
      Eigensolver: 72.64 MiB
      Projections: 0.09 MiB
      Projectors: 6.49 MiB

Total number of cores used: 1

Number of atoms: 28
Number of atomic orbitals: 64
Number of bands in calculation: 48
Number of valence electrons: 72
Bands to converge: occupied

... initialized

Initializing position-dependent things.

Density initialized from atomic densities
Creating initial wave functions:
  48 bands from LCAO basis set

                               
                               
                               
                               
                               
                 H  H          
            H                  
             C  C              
           H  HHO              
        CH   C                 
                C   HC         
             OHH  H            
             C  C              
                 H             
         H  H                  
                               
                               
                               
                               
                               

Positions:
   0 O      0.392874    6.981699    0.806212    ( 0.0000,  0.0000,  0.0000)
   1 C      0.337145    7.884661    1.913970    ( 0.0000,  0.0000,  0.0000)
   2 H      0.791979    7.499902    2.853366    ( 0.0000,  0.0000,  0.0000)
   3 H      0.489845    0.539038    1.654380    ( 0.0000,  0.0000,  0.0000)
   4 C      3.753219    7.263181    1.411545    ( 0.0000,  0.0000,  0.0000)
   5 H      3.060221    7.818608    0.804611    ( 0.0000,  0.0000,  0.0000)
   6 H      3.297081    6.440211    1.968040    ( 0.0000,  0.0000,  0.0000)
   7 O      1.331682    2.781699    2.428574    ( 0.0000,  0.0000,  0.0000)
   8 C      1.387411    3.684661    1.320815    ( 0.0000,  0.0000,  0.0000)
   9 H      0.932578    3.299902    0.381420    ( 0.0000,  0.0000,  0.0000)
  10 H      1.234711    4.739038    1.580405    ( 0.0000,  0.0000,  0.0000)
  11 C      2.604337    3.063181    1.823240    ( 0.0000,  0.0000,  0.0000)
  12 H      3.297335    3.618608    2.430174    ( 0.0000,  0.0000,  0.0000)
  13 H      3.060476    2.240211    1.266745    ( 0.0000,  0.0000,  0.0000)
  14 O      3.056239    1.418301    5.663359    ( 0.0000,  0.0000,  0.0000)
  15 C      3.111967    0.515339    4.555600    ( 0.0000,  0.0000,  0.0000)
  16 H      2.657134    0.900098    3.616205    ( 0.0000,  0.0000,  0.0000)
  17 H      2.959268    7.860962    4.815190    ( 0.0000,  0.0000,  0.0000)
  18 C     -0.304107    1.136819    5.058025    ( 0.0000,  0.0000,  0.0000)
  19 H      0.388892    0.581392    5.664959    ( 0.0000,  0.0000,  0.0000)
  20 H      0.152032    1.959789    4.501530    ( 0.0000,  0.0000,  0.0000)
  21 O      2.117431    5.618301    4.040997    ( 0.0000,  0.0000,  0.0000)
  22 C      2.061702    4.715339    5.148755    ( 0.0000,  0.0000,  0.0000)
  23 H      2.516535    5.100098    6.088151    ( 0.0000,  0.0000,  0.0000)
  24 H      2.214402    3.660962    4.889165    ( 0.0000,  0.0000,  0.0000)
  25 C      0.844776    5.336819    4.646330    ( 0.0000,  0.0000,  0.0000)
  26 H      0.151777    4.781392    4.039396    ( 0.0000,  0.0000,  0.0000)
  27 H      0.388637    6.159789    5.202825    ( 0.0000,  0.0000,  0.0000)

Timing:                              incl.     excl.
-----------------------------------------------------------
Hamiltonian:                         0.945     0.000   0.0% |
 Atomic:                             0.279     0.001   0.0% |
  XC Correction:                     0.277     0.277   2.7% ||
 Calculate atomic Hamiltonians:      0.014     0.014   0.1% |
 Communicate:                        0.000     0.000   0.0% |
 Hartree integrate/restrict:         0.013     0.013   0.1% |
 Initialize Hamiltonian:             0.001     0.001   0.0% |
 Poisson:                            0.146     0.009   0.1% |
  Communicate from 1D:               0.016     0.016   0.2% |
  Communicate from 2D:               0.012     0.012   0.1% |
  Communicate to 1D:                 0.009     0.009   0.1% |
  Communicate to 2D:                 0.024     0.024   0.2% |
  FFT 1D:                            0.018     0.018   0.2% |
  FFT 2D:                            0.058     0.058   0.6% |
 XC 3D grid:                         0.489     0.489   4.7% |-|
 vbar:                               0.004     0.004   0.0% |
LCAO initialization:                 5.756     0.038   0.4% |
 LCAO eigensolver:                   1.971     0.000   0.0% |
  Calculate projections:             0.000     0.000   0.0% |
  DenseAtomicCorrection:             0.000     0.000   0.0% |
  Distribute overlap matrix:         0.000     0.000   0.0% |
  Orbital Layouts:                   0.001     0.001   0.0% |
  Potential matrix:                  1.970     1.970  19.1% |-------|
 LCAO to grid:                       3.332     3.332  32.3% |------------|
 Set positions (LCAO WFS):           0.415     0.084   0.8% |
  Basic WFS set positions:           0.001     0.001   0.0% |
  Basis functions set positions:     0.000     0.000   0.0% |
  P tci:                             0.140     0.140   1.4% ||
  ST tci:                            0.136     0.136   1.3% ||
  mktci:                             0.054     0.054   0.5% |
Set symmetry:                        0.000     0.000   0.0% |
Other:                               3.627     3.627  35.1% |-------------|
-----------------------------------------------------------
Total:                                        10.329 100.0%

Memory usage: 1.20 GiB
Date: Sun Jul 30 22:05:20 2023
