
  ___ ___ ___ _ _ _  
 |   |   |_  | | | | 
 | | | | | . | | | | 
 |__ |  _|___|_____|  22.8.0
 |___|_|             

User:   niklas@DW-PF3E3G40
Date:   Sun Jul 30 22:04:41 2023
Arch:   x86_64
Pid:    16674
CWD:    /mnt/d/qctbx_dev/qctbx/tests
Python: 3.8.17
gpaw:   /home/niklas/anaconda3/envs/cctbx_38/lib/python3.8/site-packages/gpaw
_gpaw:  /home/niklas/anaconda3/envs/cctbx_38/lib/python3.8/site-packages/
        _gpaw.cpython-38-x86_64-linux-gnu.so
ase:    /home/niklas/anaconda3/envs/cctbx_38/lib/python3.8/site-packages/ase (version 3.22.1)
numpy:  /home/niklas/.local/lib/python3.8/site-packages/numpy (version 1.24.4)
scipy:  /home/niklas/.local/lib/python3.8/site-packages/scipy (version 1.10.1)
libxc:  5.2.3
units:  Angstrom and eV
cores: 1
OpenMP: True
OMP_NUM_THREADS: 1

Input parameters:
  convergence: {density: 1e-06}
  h: 0.21462256464160245
  symmetry: {symmorphic: False}
  xc: PBE

System changes: positions, numbers, cell, pbc, initial_charges, initial_magmoms 

Initialize ...

species:
  O:
    name: Oxygen
    id: 32ecd46bf208036f09c70b0ec9a88b78
    Z: 8.0
    valence: 6
    core: 2
    charge: 0.0
    file: /home/niklas/anaconda3/envs/cctbx_38/share/gpaw/O.PBE.gz
    compensation charges: {type: gauss,
                           rc: 0.21,
                           lmax: 2}
    cutoffs: {filter: 1.17,
              core: 0.83}
    valence states:
      #              energy  rcut
      - 2s(2.00)   -23.961   0.688
      - 2p(4.00)    -9.029   0.598
      -  s           3.251   0.688
      -  p          18.182   0.598
      -  d           0.000   0.619
  
    # Using partial waves for O as LCAO basis

  C:
    name: Carbon
    id: 4aa54d4b901d75f77cc0ea3eec22967b
    Z: 6.0
    valence: 4
    core: 2
    charge: 0.0
    file: /home/niklas/anaconda3/envs/cctbx_38/share/gpaw/C.PBE.gz
    compensation charges: {type: gauss,
                           rc: 0.20,
                           lmax: 2}
    cutoffs: {filter: 1.14,
              core: 1.14}
    valence states:
      #              energy  rcut
      - 2s(2.00)   -13.751   0.635
      - 2p(2.00)    -5.284   0.635
      -  s          13.461   0.635
      -  p          21.927   0.635
      -  d           0.000   0.635
  
    # Using partial waves for C as LCAO basis

  H:
    name: Hydrogen
    id: d65de229564ff8ea4db303e23b6d1ecf
    Z: 1.0
    valence: 1
    core: 0
    charge: 0.0
    file: /home/niklas/anaconda3/envs/cctbx_38/share/gpaw/H.PBE.gz
    compensation charges: {type: gauss,
                           rc: 0.15,
                           lmax: 2}
    cutoffs: {filter: 0.85,
              core: 0.53}
    valence states:
      #              energy  rcut
      - 1s(1.00)    -6.494   0.476
      -  s          20.717   0.476
      -  p           0.000   0.476
  
    # Using partial waves for H as LCAO basis

Reference energy: -16584.276724  # eV

Spin-paired calculation

Convergence criteria:
 Maximum [total energy] change in last 3 cyles: 0.0005 eV / electron
 Maximum integral of absolute [dens]ity change: 1e-06 electrons / valence electron
 Maximum integral of absolute [eigenst]ate change: 4e-08 eV^2 / valence electron
 Maximum number of scf [iter]ations: 333
 (Square brackets indicate name in SCF output, whereas a 'c' in
 the SCF output indicates the quantity has converged.)

Symmetries present (total): 4
Symmetries with fractional translations: 2

  ( 1  0  0) + (   0)  (-1  0  0) + (   0)  ( 1  0  0) + ( 1/2)
  ( 0  1  0) + (   0)  ( 0 -1  0) + (   0)  ( 0 -1  0) + ( 1/2)
  ( 0  0  1) + (   0)  ( 0  0 -1) + (   0)  ( 0  0  1) + ( 1/2)

  (-1  0  0) + (-1/2)
  ( 0  1  0) + (-1/2)
  ( 0  0 -1) + (-1/2)

1 k-point (Gamma)
1 k-point in the irreducible part of the Brillouin zone
       k-points in crystal coordinates                weights
   0:     0.00000000    0.00000000    0.00000000          1/1

Wave functions: Uniform real-space grid
  Kinetic energy operator: 8*3+1=25 point O(h^6) finite-difference Laplacian
  ScaLapack parameters: grid=1x1, blocksize=None
  Wavefunction extrapolation:
    Improved wavefunction reuse through dual PAW basis 

Occupation numbers: Fermi-Dirac:
  width: 0.1000  # eV
 

Eigensolver
   Davidson(niter=2) 

Densities:
  Coarse grid: 20*40*28 grid
  Fine grid: 40*80*56 grid
  Total Charge: 0.000000 

Density mixing:
  Method: separate
  Backend: pulay
  Linear mixing parameter: 0.05
  old densities: 5
  Damping of long wavelength oscillations: 50 

Hamiltonian:
  XC and Coulomb potentials evaluated on a 40*80*56 grid
  Using the PBE Exchange-Correlation functional
  Interpolation: tri-quintic (5. degree polynomial)
  Poisson solver: FastPoissonSolver using
    Stencil: 8*3+1=25 point O(h^6) finite-difference Laplacian
    FFT axes: [0, 1, 2]
    FST axes: []
 

XC parameters: PBE with 2 nearest neighbor stencil

Memory estimate:
  Process memory now: 1225.11 MiB
  Calculator: 36.39 MiB
    Density: 14.52 MiB
      Arrays: 4.44 MiB
      Localized functions: 8.37 MiB
      Mixer: 1.71 MiB
    Hamiltonian: 3.54 MiB
      Arrays: 2.91 MiB
      XC: 0.00 MiB
      Poisson: 0.00 MiB
      vbar: 0.64 MiB
    Wavefunctions: 18.34 MiB
      Arrays psit_nG: 8.20 MiB
      Eigensolver: 9.23 MiB
      Projections: 0.09 MiB
      Projectors: 0.81 MiB

Total number of cores used: 1

Number of atoms: 28
Number of atomic orbitals: 64
Number of bands in calculation: 48
Number of valence electrons: 72
Bands to converge: occupied

... initialized

Initializing position-dependent things.

Density initialized from atomic densities
Creating initial wave functions:
  48 bands from LCAO basis set

                              
                              
                              
                              
                              
             H    H H         
             C                
           H  H C             
        CHH C   HO            
                              
           OH   C HHC         
            O H  H            
               C              
        H H    H              
                              
                              
                              
                              
                              

Positions:
   0 O      0.540405    6.981699    0.668120    ( 0.0000,  0.0000,  0.0000)
   1 C      0.687389    7.884661    1.738319    ( 0.0000,  0.0000,  0.0000)
   2 H      1.314125    7.499902    2.517563    ( 0.0000,  0.0000,  0.0000)
   3 H      0.792585    0.539038    1.451848    ( 0.0000,  0.0000,  0.0000)
   4 C      4.011523    7.263181    0.386466    ( 0.0000,  0.0000,  0.0000)
   5 H      3.207459    7.818608   -0.015002    ( 0.0000,  0.0000,  0.0000)
   6 H      3.657218    6.440211    1.033498    ( 0.0000,  0.0000,  0.0000)
   7 O      1.776095    2.781699    1.974722    ( 0.0000,  0.0000,  0.0000)
   8 C      1.629111    3.684661    0.904522    ( 0.0000,  0.0000,  0.0000)
   9 H      1.002375    3.299902    0.125279    ( 0.0000,  0.0000,  0.0000)
  10 H      1.523915    4.739038    1.190994    ( 0.0000,  0.0000,  0.0000)
  11 C      2.937977    3.063181    1.072488    ( 0.0000,  0.0000,  0.0000)
  12 H      3.742041    3.618608    1.473957    ( 0.0000,  0.0000,  0.0000)
  13 H      3.292282    2.240211    0.425457    ( 0.0000,  0.0000,  0.0000)
  14 O      4.092595    1.418301    4.617563    ( 0.0000,  0.0000,  0.0000)
  15 C      3.945611    0.515339    3.547364    ( 0.0000,  0.0000,  0.0000)
  16 H      3.318875    0.900098    2.768121    ( 0.0000,  0.0000,  0.0000)
  17 H      3.840415    7.860962    3.833835    ( 0.0000,  0.0000,  0.0000)
  18 C      0.621477    1.136819    4.899217    ( 0.0000,  0.0000,  0.0000)
  19 H      1.425541    0.581392    5.300686    ( 0.0000,  0.0000,  0.0000)
  20 H      0.975782    1.959789    4.252185    ( 0.0000,  0.0000,  0.0000)
  21 O      2.856905    5.618301    3.310962    ( 0.0000,  0.0000,  0.0000)
  22 C      3.003889    4.715339    4.381161    ( 0.0000,  0.0000,  0.0000)
  23 H      3.630625    5.100098    5.160404    ( 0.0000,  0.0000,  0.0000)
  24 H      3.109085    3.660962    4.094690    ( 0.0000,  0.0000,  0.0000)
  25 C      1.695023    5.336819    4.213195    ( 0.0000,  0.0000,  0.0000)
  26 H      0.890959    4.781392    3.811726    ( 0.0000,  0.0000,  0.0000)
  27 H      1.340718    6.159789    4.860227    ( 0.0000,  0.0000,  0.0000)

Unit cell:
           periodic     x           y           z      points  spacing
  1. axis:    yes    4.633000    0.000000   -1.183887    20     0.2316
  2. axis:    yes    0.000000    8.400000    0.000000    40     0.2100
  3. axis:    yes    0.000000    0.000000    6.469570    28     0.2239

  Lengths:   4.781870   8.400000   6.469570
  Angles:   90.000000 104.334254  90.000000

Effective grid spacing dv^(1/3) = 0.2240

     iter     time        total  log10-change:
                         energy  eigst   dens
iter:   1 22:04:43  -163.828004
iter:   2 22:04:43  -163.315122  +0.10  -0.73
iter:   3 22:04:44  -158.946606  -0.14  -0.74
iter:   4 22:04:45  -155.106344  +0.01  -0.85
iter:   5 22:04:45  -154.775091  -0.59  -1.19
iter:   6 22:04:46  -154.653257  -1.00  -1.45
iter:   7 22:04:47  -154.686296  -0.90  -1.71
iter:   8 22:04:47  -154.543827  -1.09  -1.71
iter:   9 22:04:48  -154.538137  -2.26  -2.30
iter:  10 22:04:48  -154.530224c -2.26  -2.35
iter:  11 22:04:49  -154.532295c -2.51  -2.35
iter:  12 22:04:50  -154.529095c -3.12  -2.63
iter:  13 22:04:50  -154.529065c -3.83  -2.96
iter:  14 22:04:51  -154.528934c -4.09  -2.99
iter:  15 22:04:52  -154.528955c -4.37  -3.04
iter:  16 22:04:52  -154.528979c -4.75  -3.33
iter:  17 22:04:53  -154.528950c -5.31  -3.35
iter:  18 22:04:53  -154.528980c -4.51  -3.39
iter:  19 22:04:54  -154.528932c -4.90  -3.53
iter:  20 22:04:55  -154.528931c -5.43  -3.76
iter:  21 22:04:55  -154.528930c -6.12  -3.81
iter:  22 22:04:56  -154.528928c -6.14  -3.90
iter:  23 22:04:57  -154.528927c -6.58  -3.96
iter:  24 22:04:57  -154.528926c -6.74  -4.00
iter:  25 22:04:58  -154.528925c -6.26  -4.03
iter:  26 22:04:59  -154.528924c -6.56  -4.14
iter:  27 22:04:59  -154.528927c -5.85  -4.15
iter:  28 22:05:00  -154.528924c -5.96  -4.05
iter:  29 22:05:00  -154.528924c -6.86  -4.98
iter:  30 22:05:01  -154.528924c -7.67c -5.06
iter:  31 22:05:02  -154.528924c -7.91c -5.12
iter:  32 22:05:02  -154.528924c -7.44c -5.19
iter:  33 22:05:03  -154.528924c -7.37  -4.88
iter:  34 22:05:04  -154.528924c -8.57c -5.49
iter:  35 22:05:04  -154.528924c -8.95c -5.67
iter:  36 22:05:05  -154.528924c -8.93c -5.72
iter:  37 22:05:05  -154.528924c -9.81c -5.83
iter:  38 22:05:06  -154.528924c -10.43c -6.00
iter:  39 22:05:07  -154.528924c -9.89c -6.02c

Converged after 39 iterations.

Dipole moment: (2.814603, 2.542472, 0.585229) |e|*Ang

Energy contributions relative to reference atoms: (reference = -16584.276724)

Kinetic:       +177.045549
Potential:     -191.507317
External:        +0.000000
XC:            -145.556480
Entropy (-ST):   -0.000000
Local:           +5.489324
--------------------------
Free energy:   -154.528924
Extrapolated:  -154.528924

 Band  Eigenvalues  Occupancy
    0    -21.71089    2.00000
    1    -21.65300    2.00000
    2    -21.62260    2.00000
    3    -21.59509    2.00000
    4    -11.88263    2.00000
    5    -11.74892    2.00000
    6    -11.74119    2.00000
    7    -11.64906    2.00000
    8    -10.41595    2.00000
    9    -10.39621    2.00000
   10    -10.29232    2.00000
   11    -10.15073    2.00000
   12     -7.94787    2.00000
   13     -7.64475    2.00000
   14     -7.54706    2.00000
   15     -7.50180    2.00000
   16     -7.05510    2.00000
   17     -6.82824    2.00000
   18     -6.80748    2.00000
   19     -6.74181    2.00000
   20     -4.89312    2.00000
   21     -4.84134    2.00000
   22     -4.71641    2.00000
   23     -4.69512    2.00000
   24     -4.16333    2.00000
   25     -4.02562    2.00000
   26     -3.95050    2.00000
   27     -3.87653    2.00000
   28     -2.76655    2.00000
   29     -2.63526    2.00000
   30     -2.53883    2.00000
   31     -2.46007    2.00000
   32     -1.63420    2.00000
   33     -1.28637    2.00000
   34     -1.22120    2.00000
   35     -1.00094    2.00000
   36      4.93996    0.00000
   37      4.95767    0.00000
   38      4.98424    0.00000
   39      5.18674    0.00000
   40      6.02958    0.00000
   41      6.22071    0.00000
   42      6.34409    0.00000
   43      6.99337    0.00000
   44      7.01334    0.00000
   45      7.14395    0.00000
   46      8.25694    0.00000
   47      8.96901    0.00000

Fermi level: 1.62171

Gap: 5.941 eV
Transition (v -> c):
  (s=0, k=0, n=35, [0.00, 0.00, 0.00]) -> (s=0, k=0, n=36, [0.00, 0.00, 0.00])
Timing:                              incl.     excl.
-----------------------------------------------------------
Hamiltonian:                         0.338     0.000   0.0% |
 Atomic:                             0.274     0.001   0.0% |
  XC Correction:                     0.273     0.273   1.0% |
 Calculate atomic Hamiltonians:      0.002     0.002   0.0% |
 Communicate:                        0.000     0.000   0.0% |
 Hartree integrate/restrict:         0.002     0.002   0.0% |
 Initialize Hamiltonian:             0.000     0.000   0.0% |
 Poisson:                            0.018     0.001   0.0% |
  Communicate from 1D:               0.003     0.003   0.0% |
  Communicate from 2D:               0.002     0.002   0.0% |
  Communicate to 1D:                 0.001     0.001   0.0% |
  Communicate to 2D:                 0.003     0.003   0.0% |
  FFT 1D:                            0.002     0.002   0.0% |
  FFT 2D:                            0.006     0.006   0.0% |
 XC 3D grid:                         0.040     0.040   0.1% |
 vbar:                               0.000     0.000   0.0% |
LCAO initialization:                 1.228     0.039   0.1% |
 LCAO eigensolver:                   0.276     0.000   0.0% |
  Calculate projections:             0.000     0.000   0.0% |
  DenseAtomicCorrection:             0.000     0.000   0.0% |
  Distribute overlap matrix:         0.000     0.000   0.0% |
  Orbital Layouts:                   0.001     0.001   0.0% |
  Potential matrix:                  0.274     0.274   1.0% |
 LCAO to grid:                       0.490     0.490   1.8% ||
 Set positions (LCAO WFS):           0.423     0.085   0.3% |
  Basic WFS set positions:           0.002     0.002   0.0% |
  Basis functions set positions:     0.000     0.000   0.0% |
  P tci:                             0.145     0.145   0.5% |
  ST tci:                            0.138     0.138   0.5% |
  mktci:                             0.053     0.053   0.2% |
SCF-cycle:                          24.271     0.046   0.2% |
 Davidson:                          10.126     3.921  14.0% |-----|
  Apply hamiltonian:                 0.737     0.737   2.6% ||
  Subspace diag:                     1.419     0.004   0.0% |
   calc_h_matrix:                    1.083     0.349   1.2% |
    Apply hamiltonian:               0.734     0.734   2.6% ||
   diagonalize:                      0.017     0.017   0.1% |
   rotate_psi:                       0.316     0.316   1.1% |
  calc. matrices:                    3.411     1.936   6.9% |--|
   Apply hamiltonian:                1.475     1.475   5.3% |-|
  diagonalize:                       0.089     0.089   0.3% |
  rotate_psi:                        0.550     0.550   2.0% ||
 Density:                            0.420     0.001   0.0% |
  Atomic density matrices:           0.058     0.058   0.2% |
  Mix:                               0.191     0.191   0.7% |
  Multipole moments:                 0.013     0.013   0.0% |
  Pseudo density:                    0.157     0.070   0.2% |
   Symmetrize density:               0.088     0.088   0.3% |
 Hamiltonian:                       13.659     0.003   0.0% |
  Atomic:                           10.558     0.057   0.2% |
   XC Correction:                   10.501    10.501  37.5% |--------------|
  Calculate atomic Hamiltonians:     0.090     0.090   0.3% |
  Communicate:                       0.000     0.000   0.0% |
  Hartree integrate/restrict:        0.061     0.061   0.2% |
  Poisson:                           0.701     0.043   0.2% |
   Communicate from 1D:              0.101     0.101   0.4% |
   Communicate from 2D:              0.080     0.080   0.3% |
   Communicate to 1D:                0.053     0.053   0.2% |
   Communicate to 2D:                0.108     0.108   0.4% |
   FFT 1D:                           0.096     0.096   0.3% |
   FFT 2D:                           0.221     0.221   0.8% |
  XC 3D grid:                        2.227     2.227   8.0% |--|
  vbar:                              0.019     0.019   0.1% |
 Orthonormalize:                     0.020     0.000   0.0% |
  calc_s_matrix:                     0.005     0.005   0.0% |
  inverse-cholesky:                  0.000     0.000   0.0% |
  projections:                       0.010     0.010   0.0% |
  rotate_psi_s:                      0.004     0.004   0.0% |
Set symmetry:                        0.001     0.001   0.0% |
Other:                               2.150     2.150   7.7% |--|
-----------------------------------------------------------
Total:                                        27.987 100.0%

Memory usage: 1.20 GiB
Date: Sun Jul 30 22:05:09 2023
