
  ___ ___ ___ _ _ _  
 |   |   |_  | | | | 
 | | | | | . | | | | 
 |__ |  _|___|_____|  22.8.0
 |___|_|             

User:   niklas@DW-PF3E3G40
Date:   Wed Jul 26 11:14:12 2023
Arch:   x86_64
Pid:    5926
CWD:    /mnt/d/qctbx_dev/qctbx/tests
Python: 3.8.17
gpaw:   /home/niklas/anaconda3/envs/cctbx_38/lib/python3.8/site-packages/gpaw
_gpaw:  /home/niklas/anaconda3/envs/cctbx_38/lib/python3.8/site-packages/
        _gpaw.cpython-38-x86_64-linux-gnu.so
ase:    /home/niklas/anaconda3/envs/cctbx_38/lib/python3.8/site-packages/ase (version 3.22.1)
numpy:  /home/niklas/.local/lib/python3.8/site-packages/numpy (version 1.24.4)
scipy:  /home/niklas/.local/lib/python3.8/site-packages/scipy (version 1.10.1)
libxc:  5.2.3
units:  Angstrom and eV
cores: 1
OpenMP: True
OMP_NUM_THREADS: 1
DEBUG-MODE: true

Input parameters:
  convergence: {density: 1e-06}
  h: 0.21462256464160245
  symmetry: {symmorphic: False}
  xc: PBE

System changes: positions, numbers, cell, pbc, initial_charges, initial_magmoms 

Initialize ...

species:
  H:
    name: Hydrogen
    id: d65de229564ff8ea4db303e23b6d1ecf
    Z: 1.0
    valence: 1
    core: 0
    charge: 0.0
    file: /home/niklas/anaconda3/envs/cctbx_38/share/gpaw/H.PBE.gz
    compensation charges: {type: gauss,
                           rc: 0.15,
                           lmax: 2}
    cutoffs: {filter: 0.85,
              core: 0.53}
    valence states:
      #              energy  rcut
      - 1s(1.00)    -6.494   0.476
      -  s          20.717   0.476
      -  p           0.000   0.476
  
    # Using partial waves for H as LCAO basis

  O:
    name: Oxygen
    id: 32ecd46bf208036f09c70b0ec9a88b78
    Z: 8.0
    valence: 6
    core: 2
    charge: 0.0
    file: /home/niklas/anaconda3/envs/cctbx_38/share/gpaw/O.PBE.gz
    compensation charges: {type: gauss,
                           rc: 0.21,
                           lmax: 2}
    cutoffs: {filter: 1.17,
              core: 0.83}
    valence states:
      #              energy  rcut
      - 2s(2.00)   -23.961   0.688
      - 2p(4.00)    -9.029   0.598
      -  s           3.251   0.688
      -  p          18.182   0.598
      -  d           0.000   0.619
  
    # Using partial waves for O as LCAO basis

Reference energy: -2065.832626  # eV

Spin-paired calculation

Convergence criteria:
 Maximum [total energy] change in last 3 cyles: 0.0005 eV / electron
 Maximum integral of absolute [dens]ity change: 1e-06 electrons / valence electron
 Maximum integral of absolute [eigenst]ate change: 4e-08 eV^2 / valence electron
 Maximum number of scf [iter]ations: 333
 (Square brackets indicate name in SCF output, whereas a 'c' in
 the SCF output indicates the quantity has converged.)

Symmetries present (total): 4
Symmetries with fractional translations: 0

  ( 1  0  0) + (   0)  ( 1  0  0) + (   0)  (-1  0  0) + (   0)
  ( 0  1  0) + (   0)  ( 0 -1  0) + (   0)  ( 0  1  0) + (   0)
  ( 0  0  1) + (   0)  ( 0  0  1) + (   0)  ( 0  0  1) + (   0)

  (-1  0  0) + (   0)
  ( 0 -1  0) + (   0)
  ( 0  0  1) + (   0)

1 k-point (Gamma)
1 k-point in the irreducible part of the Brillouin zone
       k-points in crystal coordinates                weights
   0:     0.00000000    0.00000000    0.00000000          1/1

Wave functions: Uniform real-space grid
  Kinetic energy operator: 6*3+1=19 point O(h^6) finite-difference Laplacian
  ScaLapack parameters: grid=1x1, blocksize=None
  Wavefunction extrapolation:
    Improved wavefunction reuse through dual PAW basis 

Occupation numbers: Fermi-Dirac:
  width: 0.1000  # eV
 

Eigensolver
   Davidson(niter=2) 

Densities:
  Coarse grid: 48*48*48 grid
  Fine grid: 96*96*96 grid
  Total Charge: 0.000000 

Density mixing:
  Method: separate
  Backend: pulay
  Linear mixing parameter: 0.05
  old densities: 5
  Damping of long wavelength oscillations: 50 

Hamiltonian:
  XC and Coulomb potentials evaluated on a 96*96*96 grid
  Using the PBE Exchange-Correlation functional
  Interpolation: tri-quintic (5. degree polynomial)
  Poisson solver: FastPoissonSolver using
    Stencil: 6*3+1=19 point O(h^6) finite-difference Laplacian
    FFT axes: [0, 1, 2]
    FST axes: []
 

XC parameters: PBE with 2 nearest neighbor stencil

Memory estimate:
  Process memory now: 293.91 MiB
  Calculator: 60.35 MiB
    Density: 31.48 MiB
      Arrays: 21.94 MiB
      Localized functions: 1.11 MiB
      Mixer: 8.44 MiB
    Hamiltonian: 14.42 MiB
      Arrays: 14.34 MiB
      XC: 0.00 MiB
      Poisson: 0.00 MiB
      vbar: 0.08 MiB
    Wavefunctions: 14.44 MiB
      Arrays psit_nG: 5.06 MiB
      Eigensolver: 9.28 MiB
      Projections: 0.00 MiB
      Projectors: 0.09 MiB

Total number of cores used: 1

Number of atoms: 3
Number of atomic orbitals: 6
Number of bands in calculation: 6
Number of valence electrons: 8
Bands to converge: occupied

... initialized

Initializing position-dependent things.

Density initialized from atomic densities
Creating initial wave functions:
  6 bands from LCAO basis set

                                       
                                       
                                       
       O                               
                                       
                                       
                                       
                                       
                                       
                                       
                                       
                                       
                                       
                                       
                                       
         H                    H        
                                       
                                       
                                       

Positions:
   0 H      0.749368    0.000000    0.442433    ( 0.0000,  0.0000,  0.0000)
   1 O      0.000000    0.000000    9.834649    ( 0.0000,  0.0000,  0.0000)
   2 H      9.250632    0.000000    0.442433    ( 0.0000,  0.0000,  0.0000)

Unit cell:
           periodic     x           y           z      points  spacing
  1. axis:    yes   10.000000    0.000000    0.000000    48     0.2083
  2. axis:    yes    0.000000   10.000000    0.000000    48     0.2083
  3. axis:    yes    0.000000    0.000000   10.000000    48     0.2083

  Lengths:  10.000000  10.000000  10.000000
  Angles:   90.000000  90.000000  90.000000

Effective grid spacing dv^(1/3) = 0.2083

     iter     time        total  log10-change:
                         energy  eigst   dens
iter:   1 11:14:13   -16.560466
iter:   2 11:14:14   -16.151558  +0.27  -0.71
iter:   3 11:14:15   -14.845270  +0.38  -0.75
iter:   4 11:14:16   -14.736047  +0.12  -1.00
iter:   5 11:14:16   -14.704257  -0.80  -1.08
iter:   6 11:14:17   -14.654071  -0.85  -1.56
iter:   7 11:14:18   -14.656103  -1.63  -2.17
iter:   8 11:14:18   -14.655360c -1.73  -2.06
iter:   9 11:14:19   -14.654193c -2.09  -2.21
iter:  10 11:14:20   -14.654154c -3.10  -2.57
iter:  11 11:14:21   -14.654142c -2.84  -2.59
iter:  12 11:14:21   -14.653930c -2.87  -2.64
iter:  13 11:14:22   -14.653934c -3.87  -3.32
iter:  14 11:14:23   -14.653919c -3.95  -3.28
iter:  15 11:14:24   -14.653920c -5.12  -3.58
iter:  16 11:14:24   -14.653921c -5.19  -3.69
iter:  17 11:14:25   -14.653920c -5.68  -3.66
iter:  18 11:14:26   -14.653919c -5.84  -3.67
iter:  19 11:14:27   -14.653919c -5.99  -3.77
iter:  20 11:14:28   -14.653919c -6.84  -3.80
iter:  21 11:14:28   -14.653919c -6.90  -3.85
iter:  22 11:14:29   -14.653920c -6.95  -3.92
iter:  23 11:14:30   -14.653920c -7.67c -4.12
iter:  24 11:14:31   -14.653920c -6.53  -4.14
iter:  25 11:14:31   -14.653920c -7.23  -4.54
iter:  26 11:14:32   -14.653920c -7.12  -4.66
iter:  27 11:14:33   -14.653920c -7.64c -4.79
iter:  28 11:14:34   -14.653920c -7.93c -4.73
iter:  29 11:14:35   -14.653920c -7.82c -4.67
iter:  30 11:14:36   -14.653920c -7.51c -4.62
iter:  31 11:14:36   -14.653920c -7.26  -4.80
iter:  32 11:14:37   -14.653920c -8.06c -4.87
iter:  33 11:14:38   -14.653920c -8.36c -4.92
iter:  34 11:14:39   -14.653920c -8.36c -4.95
iter:  35 11:14:40   -14.653920c -8.11c -5.38
iter:  36 11:14:41   -14.653920c -8.69c -5.60
iter:  37 11:14:42   -14.653920c -8.92c -5.63
iter:  38 11:14:43   -14.653920c -9.44c -5.73
iter:  39 11:14:43   -14.653920c -9.40c -6.22c

Converged after 39 iterations.

Dipole moment: (-4.504694, -7.879400, 5.058789) |e|*Ang

Energy contributions relative to reference atoms: (reference = -2065.832626)

Kinetic:        +17.519415
Potential:      -20.044251
External:        +0.000000
XC:             -12.825378
Entropy (-ST):   -0.000000
Local:           +0.696295
--------------------------
Free energy:    -14.653920
Extrapolated:   -14.653920

 Band  Eigenvalues  Occupancy
    0    -25.19436    2.00000
    1    -12.90219    2.00000
    2     -9.34685    2.00000
    3     -7.15818    2.00000
    4     -0.94155    0.00000
    5      0.77712    0.00000

Fermi level: -4.63116

Gap: 6.217 eV
Transition (v -> c):
  (s=0, k=0, n=3, [0.00, 0.00, 0.00]) -> (s=0, k=0, n=4, [0.00, 0.00, 0.00])
Timing:                              incl.     excl.
-----------------------------------------------------------
Hamiltonian:                         0.504     0.000   0.0% |
 Atomic:                             0.048     0.001   0.0% |
  XC Correction:                     0.048     0.048   0.1% |
 Calculate atomic Hamiltonians:      0.001     0.001   0.0% |
 Communicate:                        0.000     0.000   0.0% |
 Hartree integrate/restrict:         0.008     0.008   0.0% |
 Initialize Hamiltonian:             0.001     0.001   0.0% |
 Poisson:                            0.159     0.007   0.0% |
  Communicate from 1D:               0.018     0.018   0.0% |
  Communicate from 2D:               0.015     0.015   0.0% |
  Communicate to 1D:                 0.012     0.012   0.0% |
  Communicate to 2D:                 0.036     0.036   0.1% |
  FFT 1D:                            0.020     0.020   0.1% |
  FFT 2D:                            0.051     0.051   0.1% |
 XC 3D grid:                         0.282     0.282   0.7% |
 vbar:                               0.004     0.004   0.0% |
LCAO initialization:                 0.083     0.052   0.1% |
 LCAO eigensolver:                   0.008     0.000   0.0% |
  Calculate projections:             0.004     0.004   0.0% |
  DenseAtomicCorrection:             0.000     0.000   0.0% |
  Distribute overlap matrix:         0.000     0.000   0.0% |
  Orbital Layouts:                   0.001     0.001   0.0% |
  Potential matrix:                  0.003     0.003   0.0% |
 LCAO to grid:                       0.006     0.006   0.0% |
 Set positions (LCAO WFS):           0.017     0.001   0.0% |
  Basic WFS set positions:           0.000     0.000   0.0% |
  Basis functions set positions:     0.000     0.000   0.0% |
  P tci:                             0.002     0.002   0.0% |
  ST tci:                            0.001     0.001   0.0% |
  mktci:                             0.013     0.013   0.0% |
SCF-cycle:                          30.096     0.080   0.2% |
 Davidson:                           7.604     2.460   6.5% |--|
  Apply hamiltonian:                 0.678     0.678   1.8% ||
  Subspace diag:                     1.076     0.003   0.0% |
   calc_h_matrix:                    0.866     0.245   0.6% |
    Apply hamiltonian:               0.622     0.622   1.6% ||
   diagonalize:                      0.022     0.022   0.1% |
   rotate_psi:                       0.184     0.184   0.5% |
  calc. matrices:                    3.025     1.634   4.3% |-|
   Apply hamiltonian:                1.391     1.391   3.7% ||
  diagonalize:                       0.034     0.034   0.1% |
  rotate_psi:                        0.331     0.331   0.9% |
 Density:                            2.009     0.001   0.0% |
  Atomic density matrices:           0.027     0.027   0.1% |
  Mix:                               1.374     1.374   3.6% ||
  Multipole moments:                 0.006     0.006   0.0% |
  Pseudo density:                    0.601     0.059   0.2% |
   Symmetrize density:               0.542     0.542   1.4% ||
 Hamiltonian:                       20.395     0.004   0.0% |
  Atomic:                            1.411     0.021   0.1% |
   XC Correction:                    1.391     1.391   3.7% ||
  Calculate atomic Hamiltonians:     0.023     0.023   0.1% |
  Communicate:                       0.000     0.000   0.0% |
  Hartree integrate/restrict:        0.334     0.334   0.9% |
  Poisson:                           6.177     0.247   0.7% |
   Communicate from 1D:              0.684     0.684   1.8% ||
   Communicate from 2D:              0.635     0.635   1.7% ||
   Communicate to 1D:                0.504     0.504   1.3% ||
   Communicate to 2D:                1.189     1.189   3.1% ||
   FFT 1D:                           0.834     0.834   2.2% ||
   FFT 2D:                           2.084     2.084   5.5% |-|
  XC 3D grid:                       12.280    12.280  32.4% |------------|
  vbar:                              0.166     0.166   0.4% |
 Orthonormalize:                     0.008     0.000   0.0% |
  calc_s_matrix:                     0.005     0.005   0.0% |
  inverse-cholesky:                  0.000     0.000   0.0% |
  projections:                       0.000     0.000   0.0% |
  rotate_psi_s:                      0.003     0.003   0.0% |
Set symmetry:                        0.002     0.002   0.0% |
Other:                               7.175     7.175  19.0% |-------|
-----------------------------------------------------------
Total:                                        37.859 100.0%

Memory usage: 433.91 MiB
Date: Wed Jul 26 11:14:50 2023
